 Q-Chem 4.4, Q-Chem, Inc., Pleasanton, CA (2016)
 Q-Chem 4.4.2 for Intel X86 EM64T Linux

User input:
--------------------------------------------------------------
$molecule
0 1
O   0.4743661118  -2.9328397986  -0.0044798094
H   -0.5036638643  -2.8448630485  0.150896345
H   0.5568189355  -3.9143847153  -0.086043227
O   4.7429549371  1.6121456373  0.0782510637
H   4.2758583493  1.4139577895  -0.7939013424
H   4.8036915337  2.5435441189  0.1428674765
O   -5.0473075705  1.3958081206  0.0968810724
H   -5.5714100248  0.5638638199  0.0645380438
H   -4.9214027563  1.6369703613  -0.8435759092
$end

$rem
jobtype force
SYM_IGNORE True
method RIMP2
AUX_BASIS rimp2-cc-pvtz
basis cc-pvtz
mem_total 9999
mem_static 2000
$end

--------------------------------------------------------------

             Standard Nuclear Orientation (Angstroms)
    I     Atom           X                Y                Z
 ----------------------------------------------------------------
    1      O       0.4743661118    -2.9328397986    -0.0044798094
    2      H      -0.5036638643    -2.8448630485     0.1508963450
    3      H       0.5568189355    -3.9143847153    -0.0860432270
    4      O       4.7429549371     1.6121456373     0.0782510637
    5      H       4.2758583493     1.4139577895    -0.7939013424
    6      H       4.8036915337     2.5435441189     0.1428674765
    7      O      -5.0473075705     1.3958081206     0.0968810724
    8      H      -5.5714100248     0.5638638199     0.0645380438
    9      H      -4.9214027563     1.6369703613    -0.8435759092
 ----------------------------------------------------------------

   12    -228.1597290095      5.49E-09 Convergence criterion met
 Total energy in the final basis set = -228.1597290095

                    Orbital Energies (a.u.)
 --------------------------------------------------------------

 Alpha MOs
 -- Occupied --
-20.561 -20.561 -20.550  -1.336  -1.331  -1.330  -0.699  -0.698
 -0.683  -0.578  -0.576  -0.564  -0.505  -0.502  -0.496

          Ground-State Mulliken Net Atomic Charges

     Atom                 Charge (a.u.)
  ----------------------------------------
      1 O                    -0.476997
      2 H                     0.239227
      3 H                     0.237771
      4 O                    -0.483401
      5 H                     0.252607
      6 H                     0.230793
      7 O                    -0.483089
      8 H                     0.241486
      9 H                     0.241603
  ----------------------------------------
  Sum of atomic charges =    -0.000000

                    Cartesian Multipole Moments
 -----------------------------------------------------------------
    Charge (ESU x 10^10)
                -0.0000
    Dipole Moment (Debye)
         X      -2.7065      Y      -1.1319      Z      -2.7433
       Tot       4.0164
    Quadrupole Moments (Debye-Ang)
        XX     -19.7900     XY      13.1110     YY      -6.0171
        XZ       2.0001     YZ      -4.2975     ZZ     -18.6277

 Total job time:  22.76s(wall), 20.62s(cpu)
        *  Thank you very much for using Q-Chem.  Have a nice day.  *
