 Q-Chem 4.3, Q-Chem, Inc., Pleasanton, CA (2015)
 Q-Chem 4.3.0 for Intel X86 EM64T Linux

User input:
--------------------------------------------------------------
$molecule
0 1
O -2.10800480352 1.26712015668 -2.01171611433
H -2.6258681275 1.64854216487 -2.73098674638
H -1.28725353301 0.937439112715 -2.41760446533
O 2.10814083458 1.22895746766 2.01862116489
H 2.67752961402 0.598829022519 1.4586474001
H 1.78806970925 1.98251387264 1.43685727804
O -0.0304207450803 -2.66250548714 1.83438539318
H -0.124973294917 -3.37560114796 2.53594818475
H -0.732233958836 -2.78246646498 1.14982537262
O 3.36740037449 -0.35553864988 0.0832582647326
H 2.82710494964 -1.20289615456 0.0336429202162
H 4.29518581488 -0.491702054352 0.0514057955915
O 2.18353171154 1.35968117017 -1.73498272914
H 2.63830679413 0.696621420989 -1.15681140302
H 1.83808913313 2.03809494332 -1.13398436352
O -0.0941802289542 -0.066414495227 2.88320873391
H 0.674530626743 0.381921353468 2.5994778742
H -0.0429295241382 -0.975052305085 2.61441609949
O 0.178942941197 0.19276597235 -2.8853603462
H 0.916760076251 0.678566216637 -2.43862030372
H 0.39533579142 0.104671625596 -3.81411731402
O 0.163104944151 -2.51065665201 -1.94696742
H 0.0800205293776 -1.56910865613 -2.28732075583
H -0.597560363287 -2.65233908686 -1.38639722579
O -2.19886499711 1.14789774013 2.01676035605
H -2.72162805141 1.37712601212 2.83020879676
H -1.43298558156 0.72727697854 2.35398773359
O -1.91795670012 -2.66719338792 -0.0780970288235
H -2.52587591731 -3.34943330721 -0.201970637403
H -2.43671418322 -1.76941920827 -0.124575976783
O 2.086569754 -2.62009519166 -0.0315501185494
H 1.52709909024 -2.77216575205 0.710522443337
H 1.49766104258 -2.59153282614 -0.821775487402
O 1.24329550618 3.14687027212 0.147211172324
H 1.52386030917 4.07872454266 0.265371196588
H 0.205542087439 3.03169888597 0.125539901378
O -1.37883552932 2.93667970929 0.101559213839
H -1.71613364014 2.34831360463 0.856534727652
H -1.73352505295 2.45094861206 -0.695288472954
O -3.17072114542 -0.386541697563 -0.0717192322731
H -2.86243088859 0.114135574489 -0.817483039486
H -2.94404268833 0.20111395752 0.765520643774
$end

$rem
jobtype force
basis 6-311g**  !test comment
method wB97X-D
thresh 11
symmetry false
! another test comment
sym_ignore true
$end
--------------------------------------------------------------

             Standard Nuclear Orientation (Angstroms)
    I     Atom           X                Y                Z
 ----------------------------------------------------------------
    1      O      -2.1080048035     1.2671201567    -2.0117161143
    2      H      -2.6258681275     1.6485421649    -2.7309867464
    3      H      -1.2872535330     0.9374391127    -2.4176044653
    4      O       2.1081408346     1.2289574677     2.0186211649
    5      H       2.6775296140     0.5988290225     1.4586474001
    6      H       1.7880697092     1.9825138726     1.4368572780
    7      O      -0.0304207451    -2.6625054871     1.8343853932
    8      H      -0.1249732949    -3.3756011480     2.5359481848
    9      H      -0.7322339588    -2.7824664650     1.1498253726
   10      O       3.3674003745    -0.3555386499     0.0832582647
   11      H       2.8271049496    -1.2028961546     0.0336429202
   12      H       4.2951858149    -0.4917020544     0.0514057956
   13      O       2.1835317115     1.3596811702    -1.7349827291
   14      H       2.6383067941     0.6966214210    -1.1568114030
   15      H       1.8380891331     2.0380949433    -1.1339843635
   16      O      -0.0941802290    -0.0664144952     2.8832087339
   17      H       0.6745306267     0.3819213535     2.5994778742
   18      H      -0.0429295241    -0.9750523051     2.6144160995
   19      O       0.1789429412     0.1927659724    -2.8853603462
   20      H       0.9167600763     0.6785662166    -2.4386203037
   21      H       0.3953357914     0.1046716256    -3.8141173140
   22      O       0.1631049442    -2.5106566520    -1.9469674200
   23      H       0.0800205294    -1.5691086561    -2.2873207558
   24      H      -0.5975603633    -2.6523390869    -1.3863972258
   25      O      -2.1988649971     1.1478977401     2.0167603560
   26      H      -2.7216280514     1.3771260121     2.8302087968
   27      H      -1.4329855816     0.7272769785     2.3539877336
   28      O      -1.9179567001    -2.6671933879    -0.0780970288
   29      H      -2.5258759173    -3.3494333072    -0.2019706374
   30      H      -2.4367141832    -1.7694192083    -0.1245759768
   31      O       2.0865697540    -2.6200951917    -0.0315501185
   32      H       1.5270990902    -2.7721657520     0.7105224433
   33      H       1.4976610426    -2.5915328261    -0.8217754874
   34      O       1.2432955062     3.1468702721     0.1472111723
   35      H       1.5238603092     4.0787245427     0.2653711966
   36      H       0.2055420874     3.0316988860     0.1255399014
   37      O      -1.3788355293     2.9366797093     0.1015592138
   38      H      -1.7161336401     2.3483136046     0.8565347277
   39      H      -1.7335250529     2.4509486121    -0.6952884730
   40      O      -3.1707211454    -0.3865416976    -0.0717192323
   41      H      -2.8624308886     0.1141355745    -0.8174830395
   42      H      -2.9440426883     0.2011139575     0.7655206438
 ----------------------------------------------------------------

   13   -1070.2193075675      3.44E-09 Convergence criterion met
 Total energy in the final basis set = -1070.2193075675

                    Orbital Energies (a.u.)
 --------------------------------------------------------------

 Alpha MOs
 -- Occupied --
-19.270 -19.262 -19.257 -19.252 -19.248 -19.236 -19.232 -19.231
-19.229 -19.212 -19.210 -19.206 -19.193 -19.188  -1.146  -1.140
 -1.128  -1.127  -1.110  -1.107  -1.098  -1.091  -1.088  -1.082
 -1.080  -1.073  -1.072  -1.039  -0.656  -0.642  -0.641  -0.640
 -0.634  -0.629  -0.621  -0.616  -0.605  -0.600  -0.599  -0.598
 -0.597  -0.570  -0.554  -0.524  -0.520  -0.509  -0.494  -0.493
 -0.478  -0.468  -0.463  -0.458  -0.444  -0.443  -0.436  -0.426
 -0.420  -0.418  -0.411  -0.409  -0.403  -0.395  -0.394  -0.389
 -0.385  -0.382  -0.378  -0.372  -0.370  -0.349

          Ground-State Mulliken Net Atomic Charges

     Atom                 Charge (a.u.)
  ----------------------------------------
      1 O                    -0.553770
      2 H                     0.281121
      3 H                     0.305218
      4 O                    -0.601112
      5 H                     0.280484
      6 H                     0.273511
      7 O                    -0.558798
      8 H                     0.278992
      9 H                     0.304279
     10 O                    -0.599548
     11 H                     0.334330
     12 H                     0.288554
     13 O                    -0.592510
     14 H                     0.286028
     15 H                     0.283105
     16 O                    -0.595855
     17 H                     0.294589
     18 H                     0.271588
     19 O                    -0.590282
     20 H                     0.331639
     21 H                     0.287255
     22 O                    -0.568921
     23 H                     0.266500
     24 H                     0.261201
     25 O                    -0.566672
     26 H                     0.287840
     27 H                     0.314156
     28 O                    -0.602229
     29 H                     0.280158
     30 H                     0.340579
     31 O                    -0.576893
     32 H                     0.266157
     33 H                     0.293835
     34 O                    -0.609533
     35 H                     0.287684
     36 H                     0.340299
     37 O                    -0.578838
     38 H                     0.290665
     39 H                     0.273285
     40 O                    -0.591084
     41 H                     0.279983
     42 H                     0.303006
  ----------------------------------------
  Sum of atomic charges =    -0.000000

                    Cartesian Multipole Moments
 -----------------------------------------------------------------
    Charge (ESU x 10^10)
                -0.0000
    Dipole Moment (Debye)
         X      -4.1221      Y      -0.1266      Z      -1.9566
       Tot       4.5647
    Quadrupole Moments (Debye-Ang)
        XX     -84.1402     XY       4.3434     YY     -82.5919
        XZ      -1.6441     YZ     -12.8905     ZZ     -81.6077

 Total job time:  146.53s(wall), 614.07s(cpu)
        *  Thank you very much for using Q-Chem.  Have a nice day.  *
